/*--------------------------------*- C++ -*----------------------------------*\
  =========                 |
  \\      /  F ield         | OpenFOAM: The Open Source CFD Toolbox
   \\    /   O peration     | Website:  https://openfoam.org
    \\  /    A nd           | Version:  7
     \\/     M anipulation  |
\*---------------------------------------------------------------------------*/
FoamFile
{
    version     2.0;
    format      ascii;
    class       volScalarField;
    location    "0";
    object      chi;
}
// * * * * * * * * * * * * * * * * * * * * * * * * * * * * * * * * * * * * * //

dimensions      [0 0 -1 0 0 0 0];

internalField   nonuniform List<scalar> 
5170
(
1
1
1
1
1
1
1
1
1
1
1
1
1
1
1
1
1
1
1
1
1
1
1
1
1
1
1
1
1
1
1
1
1
1
1
1
1
1
1
1
1
1
1
1
1
1
1
1
1
1
1
1
1
1
1
1
1
1
1
1
1
1
1
1
1
1
1
1
1
1
1
1
1
1
1
1
1
1
1
1
1
1
1
1
1
1
1
1
1
1
1
1
1
0.9999999995
0.9999999923
0.9999999959
0.999999888
0.9999967654
0.9998853774
0.9973799342
1
1
1
1
1
1
1
1
1
1
1
1
1
1
1
1
1
1
1
1
1
1
1
1
1
1
1
1
1
1
1
1
1
1
1
1
1
1
1
1
1
1
1
1
1
1
1
1
1
1
1
1
1
1
1
1
1
1
1
1
1
1
1
1
1
1
1
1
1
1
1
1
1
1
1
1
1
1
1
1
0.9999999999
1
1
1
1
0.9999984809
0.9999998375
0.9999999868
0.999999987
0.9999999935
0.9664702889
0.9978019539
0.9998539685
0.9998694386
0.9999171687
0
1.222807897e-13
0.2366718636
0.3223536142
0.3890779906
0.9997172282
0.995492042
0.3581543681
5.359892096e-96
0
0.9854639165
0.9181462994
1.726345859e-06
0
0
0.8676476637
0.4420223804
6.564491505e-42
0
0
0.3555025619
0.002610511119
6.976434867e-239
0
0
0.00052026599
1.293624495e-19
0
0
0
5.836789222e-24
1.496743346e-146
0
0
0
3.616058226e-171
0
0
0
0
0
0
0
0
0
0
0
0
0
0
0
0
0
0
0
0
0
0
0
0
0
0
0
0
0
0
0
0
0
0
0
0
0
0
0
0
0
0
0
0
0
0
0
0
0
0
0
0
0
0
0
0
0
0
0
5.325487148e-245
0
0
0
0
6.469022769e-175
0
0
0
0
4.777453202e-127
3.07086753e-268
0
0
0
7.95959554e-94
8.437698474e-189
0
0
0
2.20570894e-70
1.733818129e-135
3.214253635e-258
0
0
1.4307929e-53
5.497160943e-99
2.892766817e-185
4.69188909e-302
0
2.482270079e-41
1.572702875e-73
4.217750302e-135
2.265026208e-219
1.7781472e-318
2.684084801e-32
1.804586851e-55
4.954285476e-100
1.342303567e-161
6.05726836e-235
1.505904056e-25
1.849527727e-42
3.885932454e-75
1.184523675e-120
1.760083065e-175
1.889652865e-20
5.963372424e-33
3.295043824e-57
3.102581473e-91
1.286275553e-132
1.480974568e-16
6.593908264e-26
4.042136329e-44
8.002994935e-70
2.404892833e-101
1.511527889e-13
1.282258146e-20
1.957434424e-34
4.876340967e-54
2.953891888e-78
3.397783526e-11
1.35020074e-16
3.535322088e-27
2.90366411e-42
5.087025518e-61
2.451514452e-09
1.685182655e-13
1.121826467e-21
2.210665393e-33
5.098518247e-48
7.428066458e-08
4.312364503e-11
1.836291748e-17
1.287858234e-26
4.025676268e-38
1.149640968e-06
3.345464126e-09
3.325578081e-14
2.040802269e-21
1.600741713e-30
1.051786879e-05
1.045545566e-07
1.15366791e-11
2.18782378e-17
1.219718376e-24
6.361279472e-05
1.625531913e-06
1.145311973e-09
3.082543313e-14
4.724552784e-20
0.000277388312
1.472998162e-05
4.377198524e-08
9.301697928e-12
1.906852302e-16
0.0009329674929
8.768912859e-05
8.030786887e-07
8.630994479e-10
1.364797796e-13
0.002550378519
0.0003755063657
8.343478819e-06
3.224838132e-08
2.575205231e-11
0.005900546479
0.001239234982
5.558105927e-05
5.93904051e-07
1.724783049e-09
0.0119236134
0.003322598985
0.0002608880655
6.282845621e-06
5.13655893e-08
0.02157114763
0.007538394111
0.0009273404558
4.290221716e-05
8.0756601e-07
0.03562796739
0.01494060383
0.002639338645
0.0002068820962
7.650654369e-06
0.05457165852
0.02652247487
0.006281507562
0.0007553111879
4.838256525e-05
0.07850775955
0.04301958642
0.01293500715
0.002204746107
0.0002212597244
0.1071814101
0.06478133428
0.02367666409
0.005370643102
0.0007791158838
0.1400487304
0.09173967051
0.03936101704
0.01129464542
0.00221997023
0.1763738049
0.1234583949
0.06046161667
0.02106804602
0.005324058661
0.2153262822
0.1592314323
0.08701100211
0.03561718709
0.01109016862
0.2560609404
0.1981931638
0.1186317766
0.05552711902
0.02057610033
0.297775538
0.2394189631
0.1546285244
0.08095190957
0.03469842597
0.3397465171
0.282003286
0.1941045221
0.1116190929
0.05406134376
0.3813504334
0.3251147112
0.2360748193
0.146903973
0.0788608029
0.4220732843
0.3680306502
0.2795623545
0.185943806
0.1088788287
0.4615086523
0.4101511577
0.3236639689
0.2277543045
0.1435456163
0.499354174
0.4510040892
0.3675946733
0.2713344772
0.1820441047
0.5353957833
0.4902339205
0.4107047683
0.3157431897
0.2234233419
0.5695011891
0.527593631
0.4524844326
0.3601480586
0.2666977286
0.6015948173
0.5629206908
0.4925519705
0.403852684
0.3109306247
0.6316639053
0.5961351452
0.5306448701
0.4463006953
0.3552781201
0.6597152004
0.6272000965
0.5665906814
0.4870722304
0.3990312675
0.6858203953
0.6561527486
0.6003143796
0.5258736898
0.4416112115
0.7100101314
0.6830110135
0.6317685361
0.5625014789
0.4825776136
0.7324444676
0.7079175309
0.6610284075
0.5968803044
0.5216231732
0.7530946232
0.7308541617
0.6880674368
0.6289167531
0.5585107209
0.7723297184
0.7521725218
0.7131803197
0.6587840941
0.5932194161
0.790201492
0.7719519906
0.7364807206
0.6866016955
0.6258152486
0.8095079599
0.7929108548
0.7605157653
0.7146485192
0.6582188946
0.8441022013
0.8286864455
0.7984844154
0.755465883
0.7020998619
0.9998411091
0.9988957723
0.99589057
0.9884759671
0.988351618
0
0
0
0
0
0
0
0
0
0
0
0
0
0
0
0
0
0
0
0
0
0
0
0
0
4.038435699e-289
2.723752646e-216
1.266161642e-163
4.231424156e-125
1.345283834e-96
2.745268521e-75
3.388459936e-59
6.150791277e-47
1.606114814e-37
3.131507687e-30
1.520967614e-24
4.469941591e-20
1.535410182e-16
1.007632972e-13
1.827339027e-11
1.211376689e-09
3.633616319e-08
5.813473844e-07
5.63456131e-06
3.65458509e-05
0.0001715010924
0.000619357318
0.001807615482
0.004433065984
0.009425299974
0.01781479722
0.03054721069
0.04830700925
0.07140479976
0.09974522021
0.1328702572
0.1700487657
0.2103817246
0.252909535
0.2966863009
0.340854239
0.3846605283
0.4274935941
0.4688741949
0.50842999
0.5459900234
0.5815321879
0.6167239443
0.6625153571
0.9666704337
0
0
0
0
1.999086423e-233
0
0
0
0
0
0
0
0
0
0
0
0
0
0
0
0
0
0
0
0
0
0
0
0
0
0
0
0
0
0
0
0
0
0
0
0
0
0
0
0
0
0
0
0
0
0
0
0
0
0
0
0
0
0
0
0
0
0
0
0
0
0
0
0
0
0
0
0
0
0
0
0
0
0
0
0
0
0
0
0
0
0
0
0
0
0
0
0
0
0
0
0
0
0
0
0
0
0
0
0
0
0
0
0
0
0
0
0
0
0
0
0
0
0
0
0
0
0
0
0
0
0
0
0
0
6.640074968e-270
0
0
0
0
2.756339781e-205
5.73298166e-272
0
0
0
1.215626999e-157
1.627571252e-210
2.89383107e-260
1.878163564e-302
0
3.780409496e-122
3.26542272e-164
9.918756142e-205
3.217731094e-240
1.255066086e-268
1.856761349e-95
4.776254175e-129
4.560866687e-162
8.523899466e-192
1.673340463e-216
3.341032538e-75
3.931711089e-102
4.421326375e-129
6.320084097e-154
3.120952559e-175
1.046347175e-59
2.188183509e-81
1.997280112e-103
3.612629258e-124
1.944050644e-142
9.2364218e-48
2.740286056e-65
2.335433123e-83
1.125184329e-100
2.783208486e-116
1.742957298e-38
1.021446151e-52
1.423729843e-67
4.854499301e-82
2.422801475e-95
3.127212585e-31
7.758955799e-43
4.365432414e-55
3.462801863e-67
1.645706706e-78
1.61119633e-25
5.061332494e-35
3.738105872e-45
2.729840982e-55
6.341963214e-65
5.4345418e-21
8.36447521e-29
3.289497981e-37
1.025710511e-45
6.514389152e-54
2.225940859e-17
7.929787321e-24
8.032575165e-31
5.664310865e-38
5.957344903e-45
1.764191399e-14
8.02267629e-20
1.164998748e-25
1.098961642e-31
1.246689342e-37
3.856850265e-12
1.393504291e-16
1.805944074e-21
1.477105541e-26
1.255078578e-31
3.050488227e-10
5.991181603e-14
4.717571183e-18
2.338064262e-22
1.092310256e-26
1.076607774e-08
8.474241071e-12
2.966185624e-15
6.625179654e-19
1.310757661e-22
1.995102657e-07
4.921990114e-10
5.935386158e-13
4.676216398e-16
3.142961354e-19
2.20528467e-06
1.397633209e-08
4.714900278e-11
1.06968466e-13
2.028590864e-16
1.607095164e-05
2.226144828e-07
1.771177581e-09
9.778512714e-12
4.474578234e-14
8.358355518e-05
2.218359712e-06
3.617803542e-08
4.226188126e-10
4.090069211e-12
0.0003303870292
1.508526624e-05
4.492073434e-07
9.882654924e-09
1.81005281e-10
0.001043658333
7.504251764e-05
3.70822001e-06
1.394215393e-07
4.400054167e-09
0.00274280876
0.0002887550974
2.187399282e-05
1.295855768e-06
6.510059647e-08
0.006194267426
0.0008989972465
9.773909306e-05
8.523109559e-06
6.373967172e-07
0.01233984166
0.002348708132
0.0003468810014
4.205198353e-05
4.42300069e-06
0.02215004489
0.005304008834
0.001016326899
0.0001632353536
2.301055427e-05
0.03645146757
0.01060731117
0.002537338586
0.0005184502082
9.401865606e-05
0.05578142509
0.01916226323
0.00553983863
0.001391458205
0.0003134915233
0.08030907393
0.03178484688
0.01080672112
0.003241054135
0.0008805996585
0.1098304286
0.04906663188
0.0191722223
0.006698350506
0.002139785953
0.1438199475
0.07128278253
0.03139069849
0.0125106042
0.004597847124
0.1815256727
0.09837011738
0.04801936989
0.0214440377
0.008899715316
0.2220565672
0.1299445364
0.06932938018
0.03416429385
0.01575756425
0.2644943877
0.1653912459
0.09529368335
0.05114563213
0.02585907357
0.3079355788
0.2039126756
0.1255778199
0.07258708783
0.0397558842
0.3515842741
0.2446741008
0.1596496515
0.09843370186
0.05781024988
0.3947303402
0.2867844116
0.1967626028
0.1283268679
0.080102374
0.436817628
0.3294881512
0.2361814247
0.1617865523
0.1065248392
0.4774217765
0.3720195754
0.2770166841
0.1980532988
0.1366304144
0.5163992357
0.4140265716
0.318761223
0.2366220069
0.1700723109
0.5549657652
0.45600175
0.3613496802
0.2771071202
0.2063986572
0.6030478846
0.5061406163
0.4111887672
0.3243029966
0.2490878459
0.836807384
0.6782022812
0.4978960948
0.4003813315
0.314133949
0.2226966443
0.9986286912
0.9999897035
0.9999994904
0.9999999725
0.9999999963
0.9999999993
0.9999999998
1
1
1
1
1
1
1
1
1
1
1
1
1
1
1
1
1
1
1
1
1
1
1
1
1
1
1
1
1
1
1
1
1
1
1
1
1
1
1
1
1
1
1
1
1
1
1
1
1
1
1
1
0.1010682849
0.9971347727
0.9999724258
0.9999979352
0.9999998081
0.9999999671
0.9999999921
0.9999999978
0.9999999993
0.9999999998
0.9999999999
1
1
1
1
1
1
1
1
1
1
1
1
1
1
1
1
1
1
1
1
1
1
1
1
1
1
1
1
1
1
1
1
1
1
1
1
1
1
1
1
1
1
1
1
1
1
1
1
1
2.608783618e-15
0.9752388543
0.9998031456
0.9999900701
0.9999989363
0.9999997605
0.9999999287
0.9999999765
0.999999992
0.9999999973
0.9999999991
0.9999999997
0.9999999999
1
1
1
1
1
1
1
1
1
1
1
1
1
1
1
1
1
1
1
1
1
1
1
1
1
1
1
1
1
1
1
1
1
1
1
1
1
1
1
1
1
1
1
1
1
1
1
0
0.1025225789
0.9933083324
0.9996648837
0.9999771402
0.9999964088
0.9999990963
0.9999997264
0.9999999102
0.9999999695
0.9999999896
0.9999999965
0.9999999989
0.9999999997
0.9999999999
1
1
1
1
1
1
1
1
1
1
1
1
1
1
1
1
1
1
1
1
1
1
1
1
1
1
1
1
1
1
1
1
1
1
1
1
1
1
1
1
1
1
1
1
1
0
1.736473991e-62
0.7991121746
0.9962750025
0.9997027366
0.9999696718
0.9999936602
0.9999982505
0.9999994547
0.9999998195
0.9999999386
0.999999979
0.9999999929
0.9999999977
0.9999999993
0.9999999998
0.9999999999
1
1
1
1
1
1
1
1
1
1
1
1
1
1
1
1
1
1
1
1
1
1
1
1
1
1
1
1
1
1
1
1
1
1
1
1
1
1
1
1
1
1
1
0
0
1.826021011e-06
0.9443489905
0.9973774007
0.9997632224
0.9999638904
0.9999912834
0.9999974449
0.9999991794
0.9999997241
0.9999999053
0.9999999674
0.9999999889
0.9999999963
0.9999999988
0.9999999997
0.9999999999
1
1
1
1
1
1
1
1
1
1
1
1
1
1
1
1
1
1
1
1
1
1
1
1
1
1
1
1
1
1
1
1
1
1
1
1
1
1
1
1
1
1
0
0
1.262138683e-148
0.2830950742
0.981032537
0.9983023723
0.9998176707
0.9999629333
0.9999898846
0.9999968549
0.9999989562
0.9999996421
0.9999998758
0.999999957
0.9999999853
0.9999999951
0.9999999985
0.9999999995
0.9999999999
1
1
1
1
1
1
1
1
1
1
1
1
1
1
1
1
1
1
1
1
1
1
1
1
1
1
1
1
1
1
1
1
1
1
1
1
1
1
1
1
1
0
0
0
8.431227317e-22
0.7597050283
0.9902682847
0.9989466451
0.9998462187
0.9999631298
0.9999891229
0.9999964688
0.9999987962
0.99999958
0.9999998525
0.9999999485
0.9999999824
0.9999999941
0.9999999981
0.9999999994
0.9999999998
1
1
1
1
1
1
1
1
1
1
1
1
1
1
1
1
1
1
1
1
1
1
1
1
1
1
1
1
1
1
1
1
1
1
1
1
1
1
1
1
0
0
0
0
0.001506089878
0.9186073448
0.9942824943
0.9993238895
0.9998703594
0.9999650526
0.9999890558
0.999996311
0.9999987095
0.9999995413
0.9999998368
0.9999999426
0.9999999802
0.9999999934
0.9999999979
0.9999999994
0.9999999998
1
1
1
1
1
1
1
1
1
1
1
1
1
1
1
1
1
1
1
1
1
1
1
1
1
1
1
1
1
1
1
1
1
1
1
1
1
1
1
0
0
0
0
2.467901725e-68
0.3206214936
0.9670252761
0.996506561
0.9995373494
0.9998920178
0.9999680016
0.9999894426
0.9999963211
0.9999986832
0.9999995242
0.9999998287
0.9999999392
0.999999979
0.999999993
0.9999999978
0.9999999993
0.9999999998
1
1
1
1
1
1
1
1
1
1
1
1
1
1
1
1
1
1
1
1
1
1
1
1
1
1
1
1
1
1
1
1
1
1
1
1
1
1
0
0
0
0
0
9.506103635e-16
0.690207123
0.981537639
0.9979027505
0.9996453704
0.999907769
0.9999711552
0.9999901635
0.9999964943
0.9999987246
0.9999995337
0.9999998306
0.9999999395
0.999999979
0.999999993
0.9999999978
0.9999999993
0.9999999998
1
1
1
1
1
1
1
1
1
1
1
1
1
1
1
1
1
1
1
1
1
1
1
1
1
1
1
1
1
1
1
1
1
1
1
1
1
0
0
0
0
0
3.980542722e-183
0.0002237465449
0.8597838185
0.988614968
0.9986316672
0.99972459
0.999922759
0.9999749299
0.9999912614
0.9999968415
0.99999884
0.9999995731
0.9999998443
0.9999999443
0.9999999807
0.9999999936
0.999999998
0.9999999994
0.9999999998
1
1
1
1
1
1
1
1
1
1
1
1
1
1
1
1
1
1
1
1
1
1
1
1
1
1
1
1
1
1
1
1
1
1
1
1
0
0
0
0
0
0
3.32943421e-85
0.08323297824
0.930552248
0.9926218773
0.9990736324
0.9997888807
0.9999374811
0.9999791935
0.9999926579
0.9999973311
0.9999990178
0.9999996386
0.9999998684
0.9999999531
0.9999999838
0.9999999947
0.9999999983
0.9999999995
0.9999999999
1
1
1
1
1
1
1
1
1
1
1
1
1
1
1
1
1
1
1
1
1
1
1
1
1
1
1
1
1
1
1
1
1
1
1
0
0
0
0
0
0
1.270725808e-228
1.053570325e-29
0.4138050169
0.9625559448
0.9958373749
0.999360208
0.9998406003
0.9999510285
0.999983488
0.9999941622
0.9999978859
0.9999992272
0.9999997179
0.9999998982
0.9999999641
0.9999999877
0.999999996
0.9999999988
0.9999999996
0.9999999999
1
1
1
1
1
1
1
1
1
1
1
1
1
1
1
1
1
1
1
1
1
1
1
1
1
1
1
1
1
1
1
1
1
1
0
0
0
0
0
0
0
2.784065095e-141
1.66238723e-11
0.6705440996
0.977052515
0.9973514931
0.9995351308
0.9998783006
0.9999621918
0.9999872998
0.9999955588
0.9999984149
0.9999994298
0.9999997953
0.9999999273
0.9999999748
0.9999999915
0.9999999973
0.9999999992
0.9999999998
0.9999999999
1
1
1
1
1
1
1
1
1
1
1
1
1
1
1
1
1
1
1
1
1
1
1
1
1
1
1
1
1
1
1
1
1
0
0
0
0
0
0
0
1.442465038e-233
5.895572724e-88
4.133443468e-05
0.8106455937
0.9847347605
0.9981851784
0.9996511228
0.9999061517
0.9999709046
0.9999903653
0.9999966988
0.999998849
0.999999596
0.9999998585
0.9999999509
0.9999999834
0.9999999945
0.9999999983
0.9999999995
0.9999999999
1
1
1
1
1
1
1
1
1
1
1
1
1
1
1
1
1
1
1
1
1
1
1
1
1
1
1
1
1
1
1
1
1
0
0
0
0
0
0
0
3.935075292e-284
2.347638485e-161
1.603238358e-55
0.009234322139
0.8830955913
0.9891141459
0.9986738236
0.9997276896
0.9999257259
0.9999771897
0.9999925948
0.9999975268
0.9999991623
0.9999997148
0.9999999032
0.9999999675
0.9999999893
0.9999999966
0.999999999
0.9999999997
0.9999999999
1
1
1
1
1
1
1
1
1
1
1
1
1
1
1
1
1
1
1
1
1
1
1
1
1
1
1
1
1
1
1
1
0
0
0
0
0
0
0
2.717361052e-322
1.220218715e-203
1.594201033e-112
2.112573468e-35
0.09240291724
0.9231510181
0.9918420519
0.9989854862
0.9997806712
0.9999394854
0.9999815501
0.9999941106
0.9999980786
0.9999993674
0.9999997914
0.9999999316
0.9999999778
0.9999999929
0.9999999978
0.9999999994
0.9999999998
1
1
1
1
1
1
1
1
1
1
1
1
1
1
1
1
1
1
1
1
1
1
1
1
1
1
1
1
1
1
1
1
0
0
0
0
0
0
0
0
1.777280353e-233
3.734983211e-148
2.826386622e-79
7.821020771e-23
0.2708987537
0.9467808566
0.9941595767
0.9991937143
0.9998175264
0.9999489181
0.9999844302
0.9999950744
0.9999984185
0.9999994909
0.9999998368
0.9999999482
0.9999999838
0.999999995
0.9999999985
0.9999999996
0.9999999999
1
1
1
1
1
1
1
1
1
1
1
1
1
1
1
1
1
1
1
1
1
1
1
1
1
1
1
1
1
1
1
0
0
0
0
0
0
0
0
2.051126417e-258
1.782720282e-171
5.715508433e-109
2.820223952e-56
2.500826848e-14
0.4661397368
0.9616198982
0.9956781461
0.9993389978
0.9998434956
0.9999553324
0.9999862798
0.9999956581
0.9999986147
0.9999995598
0.9999998617
0.9999999573
0.9999999871
0.9999999962
0.9999999989
0.9999999997
0.9999999999
1
1
1
1
1
1
1
1
1
1
1
1
1
1
1
1
1
1
1
1
1
1
1
1
1
1
1
1
1
1
0
0
0
0
0
0
0
0
4.414476242e-276
1.014299645e-190
1.913734089e-127
8.801221334e-81
5.227307787e-40
2.647110649e-08
0.626749763
0.9715385404
0.9967114553
0.9994479796
0.9998633713
0.9999600807
0.9999875524
0.9999960243
0.9999987271
0.9999995967
0.9999998746
0.9999999619
0.9999999888
0.9999999968
0.9999999991
0.9999999998
0.9999999999
1
1
1
1
1
1
1
1
1
1
1
1
1
1
1
1
1
1
1
1
1
1
1
1
1
1
1
1
1
0
0
0
0
0
0
0
0
2.694370573e-286
5.5944944e-205
1.292850697e-142
1.043718401e-95
3.33486809e-60
2.041855109e-28
5.051497517e-05
0.7415537078
0.9784407909
0.9974477189
0.999535112
0.999880073
0.9999640698
0.9999885779
0.9999962961
0.9999988013
0.9999996181
0.9999998814
0.9999999643
0.9999999897
0.9999999971
0.9999999992
0.9999999998
1
1
1
1
1
1
1
1
1
1
1
1
1
1
1
1
1
1
1
1
1
1
1
1
1
1
1
1
1
0
0
0
0
0
0
0
0
2.453450762e-289
1.626247968e-213
5.081787188e-154
1.037232593e-107
1.663069501e-72
3.568243551e-45
3.33458004e-20
0.003860660355
0.8250382642
0.983773457
0.9980328549
0.9996132006
0.9998960141
0.9999679852
0.9999895938
0.9999965614
0.99999887
0.9999996361
0.9999998864
0.9999999659
0.9999999902
0.9999999973
0.9999999993
0.9999999998
1
1
1
1
1
1
1
1
1
1
1
1
1
1
1
1
1
1
1
1
1
1
1
1
1
1
1
1
0
0
0
0
0
0
0
0
2.62377834e-286
6.457088518e-217
3.588148182e-161
6.211989027e-117
4.642791005e-82
2.367500427e-55
4.572051773e-34
2.470899922e-14
0.04688751414
0.8846608274
0.9879983444
0.9985101428
0.9996849335
0.9999117638
0.9999720523
0.9999906985
0.9999968629
0.9999989512
0.9999996578
0.9999998923
0.9999999676
0.9999999908
0.9999999975
0.9999999994
0.9999999999
1
1
1
1
1
1
1
1
1
1
1
1
1
1
1
1
1
1
1
1
1
1
1
1
1
1
1
0
0
0
0
0
0
0
0
1.599369457e-278
4.304972574e-216
1.019738652e-164
4.500075041e-123
1.091339987e-89
4.63615322e-63
1.447043202e-42
9.276284092e-26
4.262583091e-10
0.1942686918
0.925892574
0.9918061238
0.9988911294
0.9997481702
0.9999265659
0.9999760811
0.9999918547
0.999997199
0.9999990485
0.9999996858
0.9999999004
0.99999997
0.9999999915
0.9999999977
0.9999999994
0.9999999999
1
1
1
1
1
1
1
1
1
1
1
1
1
1
1
1
1
1
1
1
1
1
1
1
1
1
0
0
0
0
0
0
0
6.175820573e-322
9.069232933e-265
1.921990134e-211
5.835546028e-165
2.032155097e-126
6.440347693e-95
1.908142398e-69
5.94198703e-49
5.771226974e-33
2.329134114e-19
4.759904182e-07
0.4085943348
0.9518976126
0.9945628605
0.9991735984
0.9997998751
0.9999394848
0.9999798128
0.9999929959
0.9999975547
0.9999991596
0.9999997203
0.9999999111
0.9999999733
0.9999999925
0.999999998
0.9999999995
0.9999999999
1
1
1
1
1
1
1
1
1
1
1
1
1
1
1
1
1
1
1
1
1
1
1
1
1
0
0
0
0
0
0
0
6.541425968e-294
8.337649894e-248
1.811252934e-203
2.063571021e-162
3.097008865e-127
6.183830389e-98
7.688930942e-74
3.272645442e-54
2.94193235e-38
1.464977741e-25
2.028288221e-14
6.772793335e-05
0.610010855
0.9686093358
0.9963636352
0.9993868362
0.9998428034
0.9999508875
0.9999832812
0.9999941157
0.9999979243
0.9999992821
0.9999997607
0.9999999242
0.9999999774
0.9999999937
0.9999999984
0.9999999996
0.9999999999
1
1
1
1
1
1
1
1
1
1
1
1
1
1
1
1
1
1
1
1
1
1
1
1
0
0
0
0
0
0
2.156504894e-305
4.7640035e-266
3.384660377e-228
2.335516265e-192
8.907823036e-158
4.30024062e-126
3.585274896e-99
1.254886768e-76
5.749108122e-58
1.24465219e-42
4.497456049e-30
6.619696405e-20
1.083816237e-10
0.002200408695
0.7676562809
0.9800443208
0.9976230705
0.9995558511
0.9998795803
0.9999611594
0.9999865282
0.9999952073
0.9999983002
0.9999994117
0.9999998048
0.9999999387
0.999999982
0.9999999951
0.9999999988
0.9999999997
0.9999999999
1
1
1
1
1
1
1
1
1
1
1
1
1
1
1
1
1
1
1
1
1
1
1
0
0
0
0
0
2.190337384e-301
4.057279068e-271
1.017864894e-239
1.066782384e-208
6.108082346e-179
2.308110739e-150
3.676845543e-123
8.661908227e-99
5.567247666e-78
1.869414811e-60
7.645880405e-46
1.001112616e-33
9.236006515e-24
1.472672995e-15
6.976722215e-08
0.03885162897
0.8709950716
0.9876276012
0.998482471
0.9996872015
0.9999105487
0.9999702805
0.9999895163
0.9999962416
0.999998666
0.9999995408
0.9999998493
0.9999999535
0.9999999866
0.9999999964
0.9999999991
0.9999999998
1
1
1
1
1
1
1
1
1
1
1
1
1
1
1
1
1
1
1
1
1
1
1
2.397486422e-289
1.133202818e-301
7.171644031e-304
8.418612695e-297
2.105235707e-282
1.031648679e-262
1.227380794e-239
8.15434525e-215
1.176667671e-189
4.013765737e-165
1.239592297e-141
1.031799589e-118
4.452496587e-97
4.514229444e-78
8.406130937e-62
4.932267765e-48
1.766816194e-36
8.221255298e-27
7.949181653e-19
4.241447433e-12
1.012183657e-05
0.204841225
0.9288902124
0.9922968911
0.999023669
0.9997811942
0.9999346935
0.9999778294
0.9999920953
0.9999971614
0.9999989988
0.9999996598
0.9999998903
0.9999999669
0.9999999907
0.9999999976
0.9999999994
0.9999999999
1
1
1
1
1
1
1
1
1
1
1
1
1
1
1
1
1
1
1
1
1
1
7.317733416e-236
4.592533975e-249
3.782943055e-254
1.643344679e-251
1.750842743e-242
1.422471293e-228
2.918848191e-211
7.041837139e-192
1.515222251e-171
3.151667747e-151
1.415516572e-131
8.890785366e-113
2.221850809e-94
3.392541656e-77
3.103594643e-62
2.245326178e-49
1.948368095e-38
3.391838901e-29
2.148643685e-21
5.845656879e-15
2.139281926e-09
0.0004148646189
0.4810958052
0.9616389801
0.9957340427
0.9993757018
0.999848912
0.999953244
0.9999838885
0.9999942353
0.9999979412
0.9999992836
0.9999997614
0.999999925
0.9999999779
0.999999994
0.9999999985
0.9999999996
0.9999999999
1
1
1
1
1
1
1
1
1
1
1
1
1
1
1
1
1
1
1
1
1
6.926111365e-193
4.406428985e-206
8.008595343e-213
3.394761952e-213
4.42922184e-208
1.450840736e-198
8.708854435e-186
7.969477045e-171
1.237372784e-154
5.053586601e-138
1.318331956e-121
9.772958642e-106
2.600151626e-90
2.042777273e-75
8.013633101e-62
6.029493154e-50
1.073553629e-39
6.223947572e-31
1.740383823e-23
3.70945622e-17
6.287652372e-12
3.065764038e-07
0.006342747092
0.7188482408
0.9792396898
0.9976118679
0.9995993308
0.9998962159
0.999966993
0.9999885565
0.9999959276
0.9999985657
0.9999995114
0.9999998415
0.9999999516
0.9999999862
0.9999999963
0.9999999991
0.9999999998
1
1
1
1
1
1
1
1
1
1
1
1
1
1
1
1
1
1
1
1
1
2.853338015e-158
6.34411697e-171
1.788659133e-178
8.151260707e-181
1.67484012e-178
2.631521721e-172
4.370492506e-163
1.084314981e-151
6.68769511e-139
2.178302681e-125
9.394520479e-112
2.016684579e-98
1.42368454e-85
6.978193847e-73
1.010488222e-60
7.626872079e-50
2.509992486e-40
4.332413376e-32
5.055249306e-25
5.407343713e-19
7.601322073e-14
1.640967143e-09
1.797475563e-05
0.04436484707
0.8587966537
0.9884870622
0.9986286446
0.9997410816
0.999929132
0.9999770639
0.9999920711
0.9999972191
0.999999042
0.9999996825
0.9999999002
0.9999999705
0.9999999918
0.9999999979
0.9999999995
0.9999999999
1
1
1
1
1
1
1
1
1
1
1
1
1
1
1
1
1
1
1
1
2.546764658e-130
3.927362752e-142
6.211020129e-150
1.669153985e-153
3.622283995e-153
1.881825135e-149
5.424204365e-143
1.891841414e-134
1.850906742e-124
1.366706339e-113
2.504010868e-102
4.473833091e-91
4.037071625e-80
1.546557401e-69
4.309822634e-59
3.231238399e-49
1.881517639e-40
9.119390201e-33
4.267500996e-26
2.368736824e-20
2.01336283e-15
3.310522642e-11
1.356257082e-07
0.0004272354133
0.2071746813
0.9339336799
0.9936600658
0.9992170697
0.9998349173
0.9999526064
0.999984479
0.9999946784
0.9999981708
0.9999993868
0.9999998031
0.9999999401
0.9999999828
0.9999999954
0.9999999988
0.9999999997
0.9999999999
1
1
1
1
1
1
1
1
1
1
1
1
1
1
1
1
1
1
1
1.090886186e-107
1.630592549e-118
3.35209419e-126
1.803850747e-130
1.749359079e-131
1.370886213e-129
3.006098406e-125
5.716385062e-119
2.936564471e-111
1.377368774e-102
2.261213597e-93
5.507758607e-84
1.055217845e-74
1.151008761e-65
8.831971421e-57
4.045975145e-48
3.995817129e-40
5.093310526e-33
8.921295673e-27
2.431553197e-21
1.226992232e-16
1.436087738e-12
4.402289729e-09
5.127906948e-06
0.005165130971
0.5164430817
0.9684336145
0.9965805391
0.9995405994
0.9998941365
0.9999686139
0.9999897086
0.9999965255
0.9999988361
0.9999996219
0.9999998826
0.9999999654
0.9999999904
0.9999999975
0.9999999994
0.9999999999
1
1
1
1
1
1
1
1
1
1
1
1
1
1
1
1
1
1
1
2.632313795e-89
4.23999361e-99
1.9018589e-106
4.777692411e-111
5.94509315e-113
2.223845399e-112
1.182614095e-109
3.700930034e-105
2.722567165e-99
1.937336927e-92
5.935853028e-85
3.899985934e-77
2.898833108e-69
1.509367283e-61
4.40136836e-54
1.226250568e-46
1.98558575e-39
6.613331791e-33
4.186494324e-27
5.373952309e-22
1.563477466e-17
1.200386024e-13
2.963692665e-10
2.333255247e-07
9.872417721e-05
0.03338152384
0.7656062077
0.9845502566
0.9982559711
0.9997250737
0.9999319849
0.9999794357
0.9999933041
0.9999977868
0.9999992802
0.9999997739
0.9999999322
0.9999999807
0.9999999948
0.9999999987
0.9999999997
0.9999999999
1
1
1
1
1
1
1
1
1
1
1
1
1
1
1
1
1
1
2.513380884e-74
4.21216353e-83
5.563146082e-90
1.167482975e-94
4.060137059e-97
1.766494448e-97
5.763549997e-96
7.338725279e-93
1.780730194e-88
4.012344475e-83
4.260317668e-77
1.155203386e-70
4.679473613e-64
1.848662962e-57
5.32575694e-51
1.081868027e-44
1.947898559e-38
1.721017413e-32
3.897687186e-27
2.295979945e-22
3.732894704e-18
1.840840101e-14
3.113959047e-11
2.104992329e-08
5.733647713e-06
0.001160356439
0.1282445998
0.8962511363
0.9921075894
0.9990706075
0.9998317988
0.9999560868
0.9999866162
0.9999957056
0.9999986176
0.9999995648
0.999999868
0.9999999617
0.9999999894
0.9999999972
0.9999999993
0.9999999998
1
1
1
1
1
1
1
1
1
1
1
1
1
1
1
1
1
1
4.458114902e-62
6.909621562e-70
3.12330005e-76
8.056377654e-81
1.370430603e-83
1.352695283e-84
5.543742679e-84
5.876912601e-82
9.303486977e-79
1.241023744e-74
7.976069393e-70
1.471323025e-64
4.940715316e-59
1.976280441e-53
6.855644961e-48
1.778797662e-42
4.270011874e-37
8.19331159e-32
6.627501003e-27
1.753984192e-22
1.547891416e-18
4.797107717e-15
5.64215881e-12
2.784797766e-09
6.496287911e-07
7.880098608e-05
0.008702898897
0.3447678085
0.9548055477
0.9958140795
0.9994870335
0.9998957017
0.9999716594
0.9999913668
0.9999972849
0.9999991515
0.9999997419
0.9999999244
0.9999999788
0.9999999943
0.9999999986
0.9999999996
0.9999999999
1
1
1
1
1
1
1
1
1
1
1
1
1
1
1
1
1
4.988435979e-52
6.069543683e-59
9.867970058e-65
3.996983205e-69
4.947213585e-72
1.829733651e-73
1.650368166e-73
2.602077607e-72
4.7401741e-70
6.34725787e-67
3.958811799e-63
7.451691233e-59
2.852255961e-54
1.569385287e-49
9.208601676e-45
4.577952356e-40
1.650018735e-35
6.283345892e-31
1.847291584e-26
2.184594747e-22
1.028191765e-18
1.964475073e-15
1.59570749e-12
5.91038185e-10
1.102693764e-07
1.090626964e-05
0.0006841033966
0.04204911258
0.6669877743
0.980168235
0.9978549333
0.9997120718
0.9999355361
0.9999819577
0.9999945307
0.9999983168
0.9999994895
0.9999998499
0.9999999575
0.9999999885
0.999999997
0.9999999993
0.9999999998
1
1
1
1
1
1
1
1
1
1
1
1
1
1
1
1
1
9.299527408e-44
7.393845587e-50
4.26501052e-55
3.143396568e-59
3.740659182e-62
7.538126712e-64
2.309528424e-64
8.581924106e-64
2.847782435e-62
5.939036648e-60
5.398219061e-57
1.491990668e-53
8.940090701e-50
8.567509293e-46
9.859803395e-42
1.099131464e-37
1.056693576e-33
9.157550285e-30
7.587357189e-26
4.076844404e-22
1.021638761e-18
1.190841224e-15
6.602205129e-13
1.81987943e-10
2.664969008e-08
2.278104624e-06
0.0001118276226
0.004196219941
0.1380635985
0.8596467876
0.9907889033
0.9989539066
0.9998330056
0.9999598788
0.9999886053
0.9999965873
0.9999989752
0.9999996987
0.9999999143
0.9999999766
0.9999999939
0.9999999985
0.9999999996
0.9999999999
1
1
1
1
1
1
1
1
1
1
1
1
1
1
1
1
6.262232973e-37
2.695635958e-42
5.22571582e-47
7.568327457e-51
1.045004132e-53
1.50826237e-55
2.18709505e-56
2.75764657e-56
2.425455233e-55
1.137591548e-53
2.123899848e-51
1.173243108e-48
1.442570339e-45
3.039874292e-42
8.707201035e-39
2.723940351e-35
7.824986718e-32
1.897935683e-28
4.744745093e-25
1.076228816e-21
1.445035832e-18
1.023986747e-15
3.841432317e-13
7.805739565e-11
8.942850593e-09
6.110248882e-07
2.68232299e-05
0.0007583282238
0.01947543048
0.319913629
0.9433287101
0.9954499112
0.9994589074
0.999900497
0.9999749034
0.999992859
0.9999979022
0.9999993878
0.9999998258
0.9999999522
0.9999999874
0.9999999968
0.9999999992
0.9999999998
1
1
1
1
1
1
1
1
1
1
1
1
1
1
1
1
2.825781279e-31
5.486710861e-36
3.310869369e-40
9.713560336e-44
1.762629629e-46
2.226208517e-48
1.972126034e-49
1.126667306e-49
3.558557752e-49
5.076780154e-48
2.599125922e-46
3.756423731e-44
1.208700751e-41
6.909258752e-39
5.706849764e-36
5.633816003e-33
5.714927407e-30
5.356783984e-27
4.401768184e-24
3.790193591e-21
2.760158868e-18
1.191140703e-15
3.007650924e-13
4.469508739e-11
3.993341556e-09
2.221135663e-07
8.072344738e-06
0.0002014407035
0.003689156866
0.06811095175
0.6082542715
0.9770261722
0.9976632981
0.9997104277
0.9999402411
0.9999844238
0.9999956001
0.9999987394
0.9999996439
0.9999999022
0.9999999741
0.9999999934
0.9999999984
0.9999999996
0.9999999999
1
1
1
1
1
1
1
1
1
1
1
1
1
1
1
1.405578639e-26
1.037052322e-30
1.783089429e-34
1.057478009e-37
2.720960663e-40
3.462689144e-42
2.26699701e-43
7.33966715e-44
1.060754577e-43
5.900172316e-43
1.057127314e-41
5.029156306e-40
5.215061234e-38
9.735386301e-36
2.739657494e-33
9.910083104e-31
3.949395773e-28
1.534891939e-25
5.472431011e-23
1.938091196e-20
6.771871316e-18
1.787624799e-15
3.028783227e-13
3.267852955e-11
2.261197936e-09
1.023955273e-07
3.138198346e-06
6.862728254e-05
0.001083088207
0.01412775206
0.181049004
0.8399882625
0.9902078616
0.9989133756
0.9998409505
0.9999643514
0.999990559
0.9999973752
0.99999927
0.9999998009
0.9999999473
0.9999999865
0.9999999967
0.9999999992
0.9999999998
1
1
1
1
1
1
1
1
1
1
1
1
1
1
1
1.149056341e-22
2.751233754e-26
1.228744418e-29
1.440010269e-32
5.482284656e-35
7.760759317e-37
4.336110293e-38
9.490265843e-39
7.637793296e-39
2.032861466e-38
1.561873392e-37
2.969911485e-36
1.189844463e-34
8.557073543e-33
9.474404004e-31
1.400797553e-28
2.431368838e-26
4.438092161e-24
7.801033467e-22
1.236071497e-19
2.078041795e-17
3.334850834e-15
3.809473635e-13
2.97798313e-11
1.588924487e-09
5.84074085e-08
1.510438728e-06
2.842551896e-05
0.0004099970904
0.004437611201
0.04433827924
0.3684377934
0.9403243767
0.995534122
0.999478954
0.9999105289
0.9999789357
0.9999944512
0.9999985012
0.9999995985
0.9999998948
0.9999999732
0.9999999934
0.9999999984
0.9999999996
0.9999999999
1
1
1
1
1
1
1
1
1
1
1
1
1
1
2.134544137e-19
1.438039229e-22
1.522221594e-25
3.402115826e-28
1.951559087e-30
3.282241794e-32
1.738340156e-33
2.942244146e-34
1.538450487e-34
2.310626028e-34
9.00607102e-34
8.075924586e-33
1.462388973e-31
4.677703741e-30
2.3184693e-28
1.574439053e-26
1.309399712e-24
1.195169727e-22