/*--------------------------------*- C++ -*----------------------------------*\
  =========                 |
  \\      /  F ield         | OpenFOAM: The Open Source CFD Toolbox
   \\    /   O peration     | Website:  https://openfoam.org
    \\  /    A nd           | Version:  7
     \\/     M anipulation  |
\*---------------------------------------------------------------------------*/
FoamFile
{
    version     2.0;
    format      ascii;
    class       volScalarField;
    location    "0";
    object      yWall;
}
// * * * * * * * * * * * * * * * * * * * * * * * * * * * * * * * * * * * * * //

dimensions      [0 1 0 0 0 0 0];

internalField   nonuniform List<scalar> 
5170
(
0.00312
0.00248
0.001776
0.001062857143
0.0003466666667
0.00312
0.00248
0.001776
0.001062857143
0.0003466666667
0.00312
0.00248
0.001776
0.001062857143
0.0003466666667
0.00312
0.00248
0.001776
0.001062857143
0.0003466666667
0.00312
0.00248
0.001776
0.001062857143
0.0003466666667
0.00312
0.00248
0.001776
0.001062857143
0.0003466666667
0.00312
0.00248
0.001776
0.001062857143
0.0003466666667
0.00312
0.00248
0.001776
0.001062857143
0.0003466666667
0.00312
0.00248
0.001776
0.001062857143
0.0003466666667
0.00312
0.00248
0.001776
0.001062857143
0.0003466666667
0.00312
0.00248
0.001776
0.001062857143
0.0003466666667
0.00312
0.00248
0.001776
0.001062857143
0.0003466666667
0.00312
0.00248
0.001776
0.001062857143
0.0003466666667
0.00312
0.00248
0.001776
0.001062857143
0.0003466666667
0.00312
0.00248
0.001776
0.001062857143
0.0003466666667
0.00312
0.00248
0.001776
0.001062857143
0.0003466666667
0.00312
0.00248
0.001776
0.001062857143
0.0003466666667
0.00312
0.00248
0.001776
0.001062857143
0.0003466666667
0.00312
0.00248
0.001776
0.001062857143
0.0003466666667
0.00312
0.00248
0.001776
0.001062857143
0.0003466666667
0.000546
0.001591935484
0.002610810811
0.001562790698
0.0005142857143
0.000546
0.001591935484
0.002610810811
0.001562790698
0.0005142857143
0.000546
0.001591935484
0.002610810811
0.001562790698
0.0005142857143
0.000546
0.001591935484
0.002610810811
0.001562790698
0.0005142857143
0.000546
0.001591935484
0.002610810811
0.001562790698
0.0005142857143
0.000546
0.001591935484
0.002610810811
0.001562790698
0.0005142857143
0.000546
0.001591935484
0.002610810811
0.001562790698
0.0005142857143
0.000546
0.001591935484
0.002610810811
0.001562790698
0.0005142857143
0.000546
0.001591935484
0.002610810811
0.001562790698
0.0005142857143
0.000546
0.001591935484
0.002610810811
0.001562790698
0.0005142857143
0.000546
0.001591935484
0.002610810811
0.001562790698
0.0005142857143
0.000546
0.001591935484
0.002610810811
0.001562790698
0.0005142857143
0.000546
0.001591935484
0.002610810811
0.001562790698
0.0005142857143
0.000546
0.001591935484
0.002610810811
0.001562790698
0.0005142857143
0.000546
0.001591935484
0.002610810811
0.001562790698
0.0005142857143
0.000546
0.001591935484
0.002610810811
0.001562790698
0.0005142857143
0.000546
0.001591935484
0.002610810811
0.001562790698
0.0005142857143
0.000546
0.001591935484
0.002610810811
0.001562790698
0.0005142857143
0.000546
0.001591935484
0.002610810811
0.001562790698
0.0005142857143
0.000546
0.001591935484
0.002610810811
0.001562790698
0.0005142857143
0.004081700412
0.003593673405
0.003120944707
0.002745087468
0.00249827034
0.008124107499
0.007890204873
0.007686425714
0.007541641042
0.007462292656
0.01288630404
0.01274013509
0.01261494548
0.01252725264
0.01247964426
0.01784260501
0.01773732685
0.01764762225
0.01758504422
0.01755116072
0.02290138809
0.0228194607
0.02274980427
0.02270129519
0.02267505823
0.02803580062
0.02796891715
0.02791211446
0.02787259125
0.02785122628
0.03323549479
0.03317909469
0.03313122593
0.0330979356
0.03307994563
0.03849584467
0.03844716201
0.03840585989
0.03837714533
0.03836163116
0.0438146301
0.04377186335
0.04373558995
0.04371037677
0.04369675617
0.04919078647
0.04915269763
0.04912039792
0.04909795007
0.04908582446
0.05462386153
0.05458956364
0.05456048264
0.05454027388
0.05452935849
0.06011375322
0.06008258929
0.06005616824
0.06003780936
0.06002789364
0.06566057261
0.06563204253
0.06560785634
0.06559105139
0.0655819753
0.07126456744
0.07123828173
0.07121599954
0.07120051826
0.07119215731
0.07692607712
0.07690172658
0.07688108583
0.07686674553
0.07685900097
0.08264550513
0.08262284023
0.08260362907
0.08259028239
0.08258307458
0.08842330147
0.08840211792
0.08838416295
0.0883716893
0.08836495307
0.09425995108
0.09424007952
0.09422323702
0.09421153647
0.09420521783
0.1001559661
0.1001372645
0.1001214141
0.1001104029
0.1001044566
0.1061118803
0.1060942287
0.1060792683
0.1060688756
0.1060632634
0.1121282457
0.1121115413
0.112097384
0.1120875493
0.1120822385
0.1182056294
0.118189784
0.1181763548
0.1181670261
0.1181619884
0.1243446117
0.1243295487
0.1243167828
0.1243079148
0.1243031261
0.130545785
0.1305314375
0.1305192783
0.1305108318
0.1305062706
0.1368097522
0.1367960617
0.1367844593
0.1367763997
0.1367720475
0.1431371261
0.1431240409
0.1431129515
0.1431052483
0.1431010886
0.1495285292
0.1495160033
0.148176
0.1474628571
0.1467466667
0.14952
0.14888
0.148176
0.1474628571
0.1467466667
0.14952
0.14888
0.148176
0.1474628571
0.1467466667
0.14952
0.14888
0.148176
0.1474628571
0.1467466667
0.14952
0.14888
0.148176
0.1474628571
0.1467466667
0.14952
0.14888
0.148176
0.1474628571
0.1467466667
0.14952
0.14888
0.148176
0.1474628571
0.1467466667
0.14952
0.14888
0.148176
0.1474628571
0.1467466667
0.14952
0.14888
0.148176
0.1474628571
0.1467466667
0.14952
0.14888
0.148176
0.1474628571
0.1467466667
0.14952
0.14888
0.148176
0.1474628571
0.1467466667
0.14952
0.14888
0.148176
0.1474628571
0.1467466667
0.14952
0.14888
0.148176
0.1474628571
0.1467466667
0.14952
0.14888
0.148176
0.1474628571
0.1467466667
0.14952
0.14888
0.148176
0.1474628571
0.1467466667
0.14952
0.14888
0.148176
0.1474628571
0.1467466667
0.14952
0.14888
0.148176
0.1474628571
0.1467466667
0.14952
0.14888
0.148176
0.1474628571
0.1467466667
0.14952
0.14888
0.148176
0.1474628571
0.1467466667
0.14952
0.14888
0.148176
0.1474628571
0.1467466667
0.14952
0.14888
0.148176
0.1474628571
0.1467466667
0.14952
0.14888
0.148176
0.1474628571
0.1467466667
0.14952
0.14888
0.148176
0.1474628571
0.1467466667
0.14952
0.14888
0.148176
0.1474628571
0.1467466667
0.14952
0.14888
0.148176
0.1474628571
0.1467466667
0.14952
0.14888
0.148176
0.1474628571
0.1467466667
0.14952
0.14888
0.148176
0.1474628571
0.1467466667
0.14952
0.14888
0.148176
0.1474628571
0.1467466667
0.14952
0.14888
0.148176
0.1474628571
0.1467466667
0.14952
0.14888
0.148176
0.1474628571
0.1467466667
0.14952
0.14888
0.148176
0.1474628571
0.1467466667
0.14952
0.14888
0.148176
0.1474628571
0.1467466667
0.14952
0.14888
0.148176
0.1474628571
0.1467466667
0.14952
0.14888
0.148176
0.1474628571
0.1467466667
0.14952
0.14888
0.148176
0.1474628571
0.1467466667
0.14952
0.14888
0.148176
0.1474628571
0.1467466667
0.14952
0.14888
0.148176
0.1474628571
0.1467466667
0.14952
0.14888
0.148176
0.1474628571
0.1467466667
0.14952
0.14888
0.148176
0.1474628571
0.1467466667
0.14952
0.14888
0.148176
0.1474628571
0.1467466667
0.14952
0.14888
0.148176
0.1474628571
0.1467466667
0.14952
0.14888
0.148176
0.1474628571
0.1467466667
0.14952
0.14888
0.148176
0.1474628571
0.1467466667
0.14952
0.14888
0.148176
0.1474628571
0.1467466667
0.002474101233
0.007447282814
0.01247067482
0.01754478418
0.02267012296
0.02784720838
0.03307656289
0.0383587142
0.04369419537
0.04908354483
0.05452730644
0.06002602956
0.06558026909
0.07119058556
0.07685754511
0.08258171963
0.08836368678
0.09420403004
0.1001033388
0.1060622084
0.1120812401
0.1181610415
0.1243022259
0.1305054132
0.1367712294
0.1431003067
0.1462736018
0.1462736018
0.1462736018
0.1462736018
0.1462736018
0.1462736018
0.1462736018
0.1462736018
0.1462736018
0.1462736018
0.1462736018
0.1462736018
0.1462736018
0.1462736018
0.1462736018
0.1462736018
0.1462736018
0.1462736018
0.1462736018
0.1462736018
0.1462736018
0.1462736018
0.1462736018
0.1462736018
0.1462736018
0.1462736018
0.1462736018
0.1462736018
0.1462736018
0.1462736018
0.1462736018
0.1462736018
0.1462736018
0.1462736018
0.1462736018
0.1462736018
0.1462736018
0.1462736018
0.1462736018
0.1462736018
0.1462736018
0.1462736018
0.1462736018
0.1462736018
0.002533632355
0.003010688468
0.003708664302
0.004543507246
0.002526987675
0.007477324914
0.007642322255
0.007943238339
0.008365662107
0.008892411036
0.01248863872
0.01258812133
0.01277304758
0.0130399391
0.01338397113
0.01755755731
0.01762845768
0.01776098156
0.01795387794
0.01820528508
0.02268000974
0.02273494102
0.02283785211
0.02298818732
0.02318506907
0.0278552577
0.02790000149
0.02798392447
0.02810674823
0.02826800254
0.0330833399
0.03312102173
0.03319174636
0.03329536445
0.0334316013
0.03836455815
0.03839705748
0.03845808068
0.03854754514
0.03866528039
0.0436993258
0.04372786042
0.0437814541
0.04386006145
0.04396357199
0.049088112
0.04911351587
0.04916123866
0.04923125688
0.04932349669
0.05453141767
0.05455428686
0.05459725415
0.05466030944
0.05474340234
0.06002976421
0.06005053949
0.06008957679
0.06014687444
0.06022239764
0.06558368746
0.06560270393
0.06563843926
0.06569089721
0.06576005358
0.07119373454
0.0712112529
0.0712441751
0.07129250839
0.07135623606
0.07686046192
0.07687668898
0.07690718597
0.07695196242
0.07701100696
0.08258443427
0.08259953683
0.08262792162
0.0826695996
0.08272456328
0.08836622379
0.08838033836
0.08840686713
0.08844582196
0.08849719823
0.09420640978
0.09421964946
0.09424453454
0.09428107741
0.09432927557
0.1001055783
0.1001180379
0.1001414572
0.100175849
0.1002212123
0.1060643221
0.1060760817
0.106098186
0.1061306475
0.1061734666
0.1120832403
0.1120943685
0.1121152862
0.112146006
0.1121865292
0.1181629387
0.1181734944
0.1181933362
0.1182224767
0.1182609178
0.1243040294
0.1243140637
0.1243329256
0.1243606274
0.1243971717
0.130507131
0.1305166884
0.130534654
0.13056104
0.1305958492
0.1367728685
0.136781988
0.1367991308
0.1368243087
0.136857525
0.1431018733
0.1431105896
0.1431269744
0.1431510393
0.1414142857
0.145604
0.1445580645
0.1435108108
0.1424627907
0.1414142857
0.145604
0.1445580645
0.1435108108
0.1424627907
0.1414142857
0.145604
0.1445580645
0.1435108108
0.1424627907
0.1414142857
0.145604
0.1445580645
0.1435108108
0.1424627907
0.1414142857
0.145604
0.1445580645
0.1435108108
0.1424627907
0.1414142857
0.145604
0.1445580645
0.1435108108
0.1424627907
0.1414142857
0.145604
0.1445580645
0.1435108108
0.1424627907
0.1414142857
0.145604
0.1445580645
0.1435108108
0.1424627907
0.1414142857
0.145604
0.1445580645
0.1435108108
0.1424627907
0.1414142857
0.145604
0.1445580645
0.1435108108
0.1424627907
0.1414142857
0.145604
0.1445580645
0.1435108108
0.1424627907
0.1414142857
0.145604
0.1445580645
0.1435108108
0.1424627907
0.1414142857
0.145604
0.1445580645
0.1435108108
0.1424627907
0.1414142857
0.145604
0.1445580645
0.1435108108
0.1424627907
0.1414142857
0.145604
0.1445580645
0.1435108108
0.1424627907
0.1414142857
0.145604
0.1445580645
0.1435108108
0.1424627907
0.1414142857
0.145604
0.1445580645
0.1435108108
0.1424627907
0.1414142857
0.145604
0.1445580645
0.1435108108
0.1424627907
0.1414142857
0.145604
0.1445580645
0.1435108108
0.1424627907
0.1414142857
0.145604
0.1445580645
0.1435108108
0.1424627907
0.1414142857
0.145604
0.1445580645
0.1435108108
0.1424627907
0.1414142857
0.145604
0.1445580645
0.1435108108
0.1424627907
0.1414142857
0.145604
0.1445580645
0.1435108108
0.1424627907
0.1414142857
0.145604
0.1445580645
0.1435108108
0.1424627907
0.1414142857
0.145604
0.1445580645
0.1435108108
0.1424627907
0.1414142857
0.145604
0.1445580645
0.1435108108
0.1424627907
0.1414142857
0.145604
0.1445580645
0.1435108108
0.1424627907
0.1414142857
0.145604
0.1445580645
0.1435108108
0.1424627907
0.1414142857
0.145604
0.1445580645
0.1435108108
0.1424627907
0.1414142857
0.145604
0.1445580645
0.1435108108
0.1424627907
0.1414142857
0.145604
0.1445580645
0.1435108108
0.1424627907
0.1414142857
0.145604
0.1445580645
0.1435108108
0.1424627907
0.1414142857
0.145604
0.1445580645
0.1435108108
0.1424627907
0.1414142857
0.145604
0.1445580645
0.1435108108
0.1424627907
0.1414142857
0.145604
0.1445580645
0.1435108108
0.1424627907
0.1414142857
0.145604
0.1445580645
0.1435108108
0.1424627907
0.1414142857
0.145604
0.1445580645
0.1435108108
0.1424627907
0.1414142857
0.145604
0.1445580645
0.1435108108
0.1424627907
0.1414142857
0.145604
0.1445580645
0.1435108108
0.1424627907
0.1414142857
0.145604
0.1445580645
0.1435108108
0.1424627907
0.1414142857
0.145604
0.1445580645
0.1435108108
0.1424627907
0.1414142857
0.145604
0.1445580645
0.1435108108
0.1424627907
0.1414142857
0.145604
0.1445580645
0.1435108108
0.1424627907
0.1414142857
0.145604
0.1445580645
0.1435108108
0.1424627907
0.1414142857
0.002560127208
0.005345158425
0.00595829149
0.006794548624
0.007795678152
0.008918414709
0.01013353447
0.0114218908
0.01277095455
0.01417244302
0.01562081171
0.01711231171
0.01864439711
0.02021534677
0.02182401796
0.02346968269
0.02515191672
0.02687052284
0.02862547686
0.03041688898
0.03224497573
0.0341100393
0.03601245212
0.03795264522
0.03993109943
0.04194833851
0.04400492391
0.04610145066
0.04823854415
0.05041685759
0.05263707003
0.05489988478
0.05720602817
0.0595562486
0.06195131575
0.06439202006
0.06687917223
0.06941360295
0.06907586923
0.06643823032
0.06375101451
0.06101329014
0.05822410803
0.05538250116
0.05248748431
0.04953805375
0.04653318687
0.04347184184
0.04035295722
0.03717545165
0.03393822342
0.0306401501
0.02728008819
0.02385687266
0.0203693166
0.01681621078
0.01319632326
0.009508398902
0.005751159015
0.001923300851
0.009583488585
0.01013792241
0.01047415819
0.01097144673
0.01161806138
0.01239939003
0.01330019823
0.01430616447
0.01540467567
0.01658508045
0.01783862413
0.01915823489
0.02053826419
0.02197423485
0.02346261947
0.02500065514
0.02658619316
0.02821757874
0.02989355579
0.03161319167
0.03337581778
0.03518098256
0.03702841422
0.0389179911
0.04084971792
0.04282370671
0.04484016147
0.04689936572
0.04900167236
0.05114749536
0.05333730302
0.05557161236
0.05785098453
0.06017602097
0.06254736026
0.06496567555
0.06743167231
0.06994608658
0.06907586923
0.06643823032
0.06375101451
0.06101329014
0.05822410803
0.05538250116
0.05248748431
0.04953805375
0.04653318687
0.04347184184
0.04035295722
0.03717545165
0.03393822342
0.0306401501
0.02728008819
0.02385687266
0.0203693166
0.01681621078
0.01319632326
0.009508398902
0.005751159015
0.001923300851
0.01385276011
0.0144655593
0.01517911723
0.01566988553
0.01612922873
0.0167008246
0.0173801019
0.0181614705
0.01903882091
0.02000593818
0.0210568084
0.02218582055
0.02338788073
0.02465846035
0.02599359885
0.02738987818
0.02884438136
0.03035464411
0.03191860503
0.03353455765
0.03520110626
0.03691712614
0.03868172862
0.04049423046
0.04235412758
0.04426107234
0.04621485421
0.04821538317
0.05026267564
0.05235684244
0.05449807852
0.05668665425
0.05892290794
0.06120723951
0.06354010501
0.06592201202
0.06835351563
0.07083521509
0.06907586923
0.06643823032
0.06375101451
0.06101329014
0.05822410803
0.05538250116
0.05248748431
0.04953805375
0.04653318687
0.04347184184
0.04035295722
0.03717545165
0.03393822342
0.0306401501
0.02728008819
0.02385687266
0.0203693166
0.01681621078
0.01319632326
0.009508398902
0.005751159015
0.001923300851
0.01855264629
0.01901457671
0.01956290678
0.02019564498
0.02092425119
0.02136796225
0.02190297264
0.02252801099
0.02324110518
0.02403975522
0.02492110448
0.02588209616
0.02691960686
0.0280305536
0.02921197442
0.03046108493
0.03177531439
0.03315232552
0.0345900219
0.03608654632
0.03764027298
0.03924979581
0.04091391447
0.04263161936
0.04440207643
0.04622461242
0.0480987008
0.05002394869
0.05200008492
0.05402694901
0.05610448138
0.0582327145
0.06041176499
0.06264182658
0.06492316392
0.06725610706
0.06964104657
0.07166484569
0.06907586923
0.06643823032
0.06375101451
0.06101329014
0.05822410803
0.05538250116
0.05248748431
0.04953805375
0.04653318687
0.04347184184
0.04035295722
0.03717545165
0.03393822342
0.0306401501
0.02728008819
0.02385687266
0.0203693166
0.01681621078
0.01319632326
0.009508398902
0.005751159015
0.001923300851
0.02345880874
0.0238258085
0.02426566184
0.02477860164
0.02536438229
0.02602234177
0.02667361857
0.02718920735
0.02778292078
0.02845437661
0.0292027938
0.03002706477
0.03092582983
0.03189754931
0.03294057023
0.03405318505
0.03523368163
0.03648038383
0.03779168338
0.03916606366
0.04060211653
0.04209855328
0.04365421073
0.04526805371
0.04693917456
0.04866679063
0.05045024019
0.05228897742
0.05418256683
0.05613067732
0.0581330762
0.06018962332
0.06230026538
0.06446503047
0.06668402305
0.06895741914
0.07128546194
0.07166484569
0.06907586923
0.06643823032
0.06375101451
0.06101329014
0.05822410803
0.05538250116
0.05248748431
0.04953805375
0.04653318687
0.04347184184
0.04035295722
0.03717545165
0.03393822342
0.0306401501
0.02728008819
0.02385687266
0.0203693166
0.01681621078
0.01319632326
0.009508398902
0.005751159015
0.001923300851
0.02849295083
0.02879586238
0.02916084506
0.02958904593
0.03008129699
0.03063812675
0.03125977973
0.03204170662
0.03254702219
0.03312203971
0.03376716056
0.0344824968
0.03526790208
0.03612300678
0.03704725541
0.03803994452
0.03910025944
0.04022730877
0.04142015571
0.04267784565
0.04399942993
0.04538398567
0.04683063187
0.04833854211
0.04990695418
0.05153517709
0.05322259578
0.05496867405
0.05677295584
0.05863506547
0.06055470679
0.06253166176
0.06456578841
0.06665701854
0.06880535515
0.07101086974
0.07327369959
0.07166484569
0.06907586923
0.06643823032
0.06375101451
0.06101329014
0.05822410803
0.05538250116
0.05248748431
0.04953805375
0.04653318687
0.04347184184
0.04035295722
0.03717545165
0.03393822342
0.0306401501
0.02728008819
0.02385687266
0.0203693166
0.01681621078
0.01319632326
0.009508398902
0.005751159015
0.001923300851
0.03362202024
0.033879104
0.0341898652
0.03455580467
0.03497822789
0.03545824035
0.03599674745
0.03659445883
0.03725189684
0.03797115069
0.03853517747
0.03916352073
0.03985678973
0.04061539596
0.0414395693
0.04232937691
0.04328474395
0.0443054753
0.04539127746
0.04654177993
0.04775655561
0.0490351397
0.05037704687
0.0517817866
0.05324887647
0.05477785362
0.05636828428
0.0580197716
0.05973196201
0.06150455002
0.06333728195
0.06522995855
0.06718243672
0.06919463051
0.07126651154
0.07339810891
0.07420605729
0.07166484569
0.06907586923
0.06643823032
0.06375101451
0.06101329014
0.05822410803
0.05538250116
0.05248748431
0.04953805375
0.04653318687
0.04347184184
0.04035295722
0.03717545165
0.03393822342
0.0306401501
0.02728008819
0.02385687266
0.0203693166
0.01681621078
0.01319632326
0.009508398902
0.005751159015
0.001923300851
0.03883004233
0.03905285688
0.039322752
0.03964133675
0.04001010334
0.04043041864
0.04090351781
0.04143050035
0.04201232868
0.04264982931
0.04345920618
0.0440173154
0.04463525946
0.04531393923
0.04605410517
0.04685636401
0.04772118772
0.04864892435
0.04963981032
0.05069398365
0.05181149779
0.05299233553
0.05423642273
0.0555436416
0.05691384317
0.05834685893
0.05984251141
0.06140062374
0.06302102812
0.0647035731
0.06644813003
0.06825459832
0.07012290997
0.07205303318
0.0740449753
0.07609878508
0.07420605729
0.07166484569
0.06907586923
0.06643823032
0.06375101451
0.06101329014
0.05822410803
0.05538250116
0.05248748431
0.04953805375
0.04653318687
0.04347184184
0.04035295722
0.03717545165
0.03393822342
0.0306401501
0.02728008819
0.02385687266
0.0203693166
0.01681621078
0.01319632326
0.009508398902
0.005751159015
0.001923300851
0.04410854726
0.04430482349
0.04454290716
0.04482440555
0.0451508596
0.04552373562
0.04594441776
0.04641420163
0.04693428933
0.0475057859
0.04812969751
0.0490101338
0.04956587078
0.05017790597
0.05084731815
0.05157507158
0.05236201789
0.05320889964
0.05411635546
0.0550849266
0.05611506449
0.05720713928
0.05836144884
0.05957822826
0.06085765937
0.06219988028
0.06360499455
0.06507308012
0.06660419765
0.06819839831
0.06985573093
0.07157624851
0.07336001405
0.07520710571
0.07711762137
0.07670038502
0.07420605729
0.07166484569
0.06907586923
0.06643823032
0.06375101451
0.06101329014
0.05822410803
0.05538250116
0.05248748431
0.04953805375
0.04653318687
0.04347184184
0.04035295722
0.03717545165
0.03393822342
0.0306401501
0.02728008819
0.02385687266
0.0203693166
0.01681621078
0.01319632326
0.009508398902
0.005751159015
0.001923300851
0.04945276135
0.04962790594
0.04984056824
0.05009230477
0.0503846384
0.05071905134
0.05109697826
0.05151979985
0.05198883706
0.05250534599
0.0530705139
0.05368545602
0.05462356595
0.05517953116
0.05578896104
0.05645304615
0.0571728898
0.05794950743
0.05878382719
0.05967669184
0.06062886172
0.06164101877
0.06271377138
0.06384766004
0.06504316348
0.06630070526
0.06762066061
0.06900336344
0.07044911323
0.0719581819
0.07353082044
0.07516726523
0.07686774403
0.07863248159
0.07914869361
0.07670038502
0.07420605729
0.07166484569
0.06907586923
0.06643823032
0.06375101451
0.06101329014
0.05822410803
0.05538250116
0.05248748431
0.04953805375
0.04653318687
0.04347184184
0.04035295722
0.03717545165
0.03393822342
0.0306401501
0.02728008819
0.02385687266
0.0203693166
0.01681621078
0.01319632326
0.009508398902
0.005751159015
0.001923300851
0.05485989773
0.05501783186
0.05520973661
0.05543709743
0.05570138742
0.05600406184
0.05634655235
0.05673026134
0.05715655652
0.05762676576
0.05814217247
0.05870401147
0.05931346548
0.05997166241
0.06085770088
0.0614670481
0.06212882512
0.06284422801
0.06361438455
0.06444035329
0.06532312344
0.06626361579
0.06726268433
0.06832111881
0.06943964788
0.07061894292
0.07185962235
0.07316225632
0.07452737173
0.07595545751
0.07744696984
0.07900233759
0.08062196757
0.08155183184
0.07914869361
0.07670038502
0.07420605729
0.07166484569
0.06907586923
0.06643823032
0.06375101451
0.06101329014
0.05822410803
0.05538250116
0.05248748431
0.04953805375
0.04653318687
0.04347184184
0.04035295722
0.03717545165
0.03393822342
0.0306401501
0.02728008819
0.02385687266
0.0203693166
0.01681621078
0.01319632326
0.009508398902
0.005751159015
0.001923300851
0.06032831389
0.06047196788
0.06064661651
0.0608536675
0.06109453035
0.06137061202
0.06168331248
0.06203401993
0.06242410616
0.06285492192
0.06332779246
0.06384401334
0.06440484659
0.0650115172
0.06566521012
0.06660021542
0.06721146929
0.06787332087
0.06858702949
0.0693538018
0.07017478998
0.07105109056
0.07198374397
0.07297373478
0.07402199262
0.07512939367
0.07629676282
0.07752487628
0.0788144646
0.08016621619
0.08158078101
0.0830587746
0.08391063278
0.08155183184
0.07914869361
0.07670038502
0.07420605729
0.07166484569
0.06907586923
0.06643823032
0.06375101451
0.06101329014
0.05822410803
0.05538250116
0.05248748431
0.04953805375
0.04653318687
0.04347184184
0.04035295722
0.03717545165
0.03393822342
0.0306401501
0.02728008819
0.02385687266
0.0203693166
0.01681621078
0.01319632326
0.009508398902
0.005751159015
0.001923300851
0.06585706436
0.06598868365
0.06614876842
0.06633864875
0.06655966578
0.06681316854
0.0671005105
0.06742304575
0.06778212523
0.06817909269
0.06861528086
0.06909200757
0.069610572
0.0701722512
0.07077829675
0.07142993175
0.07240718384
0.07302195803
0.07368581466
0.07440005707
0.07516594852
0.0759847099
0.07685751794
0.07778550402
0.07876975345
0.07981130534
0.08091115303
0.08207024497
0.08328948612
0.08456973978
0.08591182979
0.08622591413
0.08391063278
0.08155183184
0.07914869361
0.07670038502
0.07420605729
0.07166484569
0.06907586923
0.06643823032
0.06375101451
0.06101329014
0.05822410803
0.05538250116
0.05248748431
0.04953805375
0.04653318687
0.04347184184
0.04035295722
0.03717545165
0.03393822342
0.0306401501
0.02728008819
0.02385687266
0.0203693166
0.01681621078
0.01319632326
0.009508398902
0.005751159015
0.001923300851
0.0714456486
0.07156699062
0.07171462432
0.07188980523
0.07209380615
0.07232791486
0.07259343142
0.07289166534
0.07322393241
0.07359155153
0.0739958414
0.07443811716
0.07491968708
0.07544184924
0.07600588838
0.07661307282
0.07726465163
0.07827889699
0.07889853384
0.07956599683
0.08028262064
0.08104971004
0.08186853745
0.0827403408
0.08366632189
0.08464764509
0.0856854366
0.08678078399
0.08793473636
0.08914830478
0.08849847848
0.08622591413
0.08391063278
0.08155183184
0.07914869361
0.07670038502
0.07420605729
0.07166484569
0.06907586923
0.06643823032
0.06375101451
0.06101329014
0.05822410803
0.05538250116
0.05248748431
0.04953805375
0.04653318687
0.04347184184
0.04035295722
0.03717545165
0.03393822342
0.0306401501
0.02728008819
0.02385687266
0.0203693166
0.01681621078
0.01319632326
0.009508398902
0.005751159015
0.001923300851
0.07709386144
0.07720632691
0.07734319692
0.07750565698
0.07769491395
0.0779121944
0.07815874266
0.07843581863
0.07874469535
0.07908665643
0.07946299335
0.07987500269
0.08032398322
0.08081123303
0.08133804667
0.08190571223
0.0825155086
0.08316870281
0.08421577173
0.08484141334
0.08551383948
0.08623440765
0.08700445385
0.08782528999
0.08869820169
0.08962444636
0.09060525156
0.09164181379
0.09291859258
0.09072911356
0.08849847848
0.08622591413
0.08391063278
0.08155183184
0.07914869361
0.07670038502
0.07420605729
0.07166484569
0.06907586923
0.06643823032
0.06375101451
0.06101329014
0.05822410803
0.05538250116
0.05248748431
0.04953805375
0.04653318687
0.04347184184
0.04035295722
0.03717545165
0.03393822342
0.0306401501
0.02728008819
0.02385687266
0.0203693166
0.01681621078
0.01319632326
0.009508398902
0.005751159015
0.001923300851
0.08280170076
0.08290642371
0.08303389842
0.08318524533
0.08336160885
0.08356415627
0.08379407635
0.08405257772
0.08434088701
0.08466024688
0.08501191381
0.08539715588
0.08581725035
0.08627348122
0.08676713671
0.08729950671
0.08787188024
0.08848554291
0.08914177445
0.09021831559
0.09085095372
0.09152951498
0.09225537404
0.09302989096
0.09385440871
0.0947302509
0.09565871973
0.0950676744
0.09291859258
0.09072911356
0.08849847848
0.08622591413
0.08391063278
0.08155183184
0.07914869361
0.07670038502
0.07420605729
0.07166484569
0.06907586923
0.06643823032
0.06375101451
0.06101329014
0.05822410803
0.05538250116
0.05248748431
0.04953805375
0.04653318687
0.04347184184
0.04035295722
0.03717545165
0.03393822342
0.0306401501
0.02728008819
0.02385687266
0.0203693166
0.01681621078
0.01319632326
0.009508398902
0.005751159015
0.001923300851
0.0885693083
0.08866721951
0.08878642357
0.08892798078
0.08909297702
0.08928252313
0.08949775391
0.08973982697
0.09000992138
0.09030923611
0.09063898838
0.09100041185
0.09139475467
0.09182327747
0.09228725122
0.09278795502
0.0933266739
0.09390469652
0.09452331287
0.09518381205
0.09628710377
0.09692761564
0.09761334232
0.09834567185
0.09912598344
0.09924761207
0.09717710388
0.0950676744
0.09291859258
0.09072911356
0.08849847848
0.08622591413
0.08391063278
0.08155183184
0.07914869361
0.07670038502
0.07420605729
0.07166484569
0.06907586923
0.06643823032
0.06375101451
0.06101329014
0.05822410803
0.05538250116
0.05248748431
0.04953805375
0.04653318687
0.04347184184
0.04035295722
0.03717545165
0.03393822342
0.0306401501
0.02728008819
0.02385687266
0.0203693166
0.01681621078
0.01319632326
0.009508398902
0.005751159015
0.001923300851
0.09439693061
0.09448880331
0.09460067202
0.09473354158
0.0948884434
0.09506643505
0.09526859971
0.09549604537
0.09574990382
0.09603132958
0.09634149858
0.09668160679
0.09705286867
0.09745651554
0.09789379384
0.09836596328
0.09887429492
0.09942006922
0.1000045739
0.1006291022
0.1012949503
0.1024227637
0.1030719382
0.1032747213
0.1012799165
0.09924761207
0.09717710388
0.0950676744
0.09291859258
0.09072911356
0.08849847848
0.08622591413
0.08391063278
0.08155183184
0.07914869361
0.07670038502
0.07420605729
0.07166484569
0.06907586923
0.06643823032
0.06375101451
0.06101329014
0.05822410803
0.05538250116
0.05248748431
0.04953805375
0.04653318687
0.04347184184
0.04035295722
0.03717545165
0.03393822342
0.0306401501
0.02728008819
0.02385687266
0.0203693166
0.01681621078
0.01319632326
0.009508398902
0.005751159015
0.001923300851
0.1002848925
0.100371376
0.1004766954
0.1006018045
0.1007476841
0.1009153419
0.1011058122
0.1013201552
0.1015594567
0.1018248272
0.1021174006
0.1024383339
0.1027888052
0.103170013
0.1035831745
0.1040295242
0.1045103122
0.1050268029
0.1055802727
0.1061720084
0.1068033058
0.107154584
0.1052327177
0.1032747213
0.1012799165
0.09924761207
0.09717710388
0.0950676744
0.09291859258
0.09072911356
0.08849847848
0.08622591413
0.08391063278
0.08155183184
0.07914869361
0.07670038502
0.07420605729
0.07166484569
0.06907586923
0.06643823032
0.06375101451
0.06101329014
0.05822410803
0.05538250116
0.05248748431
0.04953805375
0.04653318687
0.04347184184
0.04035295722
0.03717545165
0.03393822342
0.0306401501
0.02728008819
0.02385687266
0.0203693166
0.01681621078
0.01319632326
0.009508398902
0.005751159015
0.001923300851
0.1062335789
0.1063152234
0.1064146603
0.1065327962
0.1066705651
0.1068289279
0.1070088728
0.1072114147
0.1074375952
0.1076884814
0.1079651662
0.1082687668
0.108600424
0.1089613014
0.1093525841
0.1097754777
0.1102312069
0.110721014
0.1112461576
0.1108925767
0.1090409859
0.107154584
0.1052327177
0.1032747213
0.1012799165
0.09924761207
0.09717710388
0.0950676744
0.09291859258
0.09072911356
0.08849847848
0.08622591413
0.08391063278
0.08155183184
0.07914869361
0.07670038502
0.07420605729
0.07166484569
0.06907586923
0.06643823032
0.06375101451
0.06101329014
0.05822410803
0.05538250116
0.05248748431
0.04953805375
0.04653318687
0.04347184184
0.04035295722
0.03717545165
0.03393822342
0.0306401501
0.02728008819
0.02385687266
0.0203693166
0.01681621078
0.01319632326
0.009508398902
0.005751159015
0.001923300851
0.1122434213
0.1123206974
0.1124148222
0.1125266591
0.1126570983
0.1128070573
0.112977481
0.1131693412
0.1133836373
0.1136213949
0.1138836664
0.1141715298
0.1144860884
0.1148284701
0.1151998263
0.1156013315
0.1160341816
0.1144938773
0.1127099975
0.1108925767
0.1090409859
0.107154584
0.1052327177
0.1032747213
0.1012799165
0.09924761207
0.09717710388
0.0950676744
0.09291859258
0.09072911356
0.08849847848
0.08622591413
0.08391063278
0.08155183184
0.07914869361
0.07670038502
0.07420605729
0.07166484569
0.06907586923
0.06643823032
0.06375101451
0.06101329014
0.05822410803
0.05538250116
0.05248748431
0.04953805375
0.04653318687
0.04347184184
0.04035295722
0.03717545165